Created by charmm2lammps v1.8.1 on Tue Nov 17 14:21:42 CET 2015

          40  atoms
          39  bonds
          38  angles
         185  dihedrals
           0  impropers

           1  atom types
           1  bond types
           1  angle types
           5  dihedral types
           0  improper types

       -1000.     1000.0 xlo xhi
       -1000.     1000.0 ylo yhi
       -1000.     1000.0 zlo zhi

Masses

       1     14.026

Pair Coeffs

       1          0   3.385415

Atoms

       1       1     1         0           0           0           0
       2       1     1         0        1.53           0           0
       3       2     1         0       2.103       1.419           0
       4       2     1         0       1.178        2.41       0.709
       5       3     1         0       0.365       1.742       1.819
       6       3     1         0       1.111       0.563       2.447
       7       4     1         0       2.629       0.755         2.4
       8       4     1         0       3.021       2.233       2.456
       9       5     1         0       2.007       3.066       3.243
      10       5     1         0       1.324       2.249       4.342
      11       6     1         0       2.233       1.144       4.884
      12       6     1         0       3.712       1.528       4.802
      13       7     1         0        3.92       3.039       4.922
      14       7     1         0       2.841       3.699       5.782
      15       8     1         0       2.304       2.752       6.856
      16       8     1         0       3.362       1.746       7.314
      17       9     1         0       4.779       2.315       7.206
      18       9     1         0       4.802       3.833       7.398
      19      10     1         0       3.681       4.311       8.323
      20      10     1         0       3.306       3.254       9.363
      21      11     1         0       4.496       2.368       9.735
      22      11     1         0       5.826       3.115       9.615
      23      12     1         0       5.669       4.613       9.883
      24      12     1         0       4.532       4.903      10.865
      25      13     1         0       4.328       3.759       11.86
      26      13     1         0       5.632       3.012       12.15
      27      14     1         0       6.854       3.925      12.028
      28      14     1         0       6.523       5.377      12.379
      29      15     1         0       5.395       5.475      13.408
      30      15     1         0       5.371       4.268      14.349
      31      16     1         0       6.767       3.679       14.56
      32      16     1         0       7.861       4.742      14.448
      33      17     1         0       7.365       6.123      14.883
      34      17     1         0       6.273        6.03       15.95
      35      18     1         0       6.433       4.786      16.827
      36      18     1         0       7.898       4.367      16.965
      37      19     1         0       8.847       5.564      16.875
      38      19     1         0         8.2       6.849      17.396
      39      20     1         0       7.167       6.569      18.489
      40      20     1         0       7.512       5.316      19.296

Bond Coeffs

       1        260      1.526

Bonds

       1       1       1       2
       2       1       2       3
       3       1       3       4
       4       1       4       5
       5       1       5       6
       6       1       6       7
       7       1       7       8
       8       1       8       9
       9       1       9      10
      10       1      10      11
      11       1      11      12
      12       1      12      13
      13       1      13      14
      14       1      14      15
      15       1      15      16
      16       1      16      17
      17       1      17      18
      18       1      18      19
      19       1      19      20
      20       1      20      21
      21       1      21      22
      22       1      22      23
      23       1      23      24
      24       1      24      25
      25       1      25      26
      26       1      26      27
      27       1      27      28
      28       1      28      29
      29       1      29      30
      30       1      30      31
      31       1      31      32
      32       1      32      33
      33       1      33      34
      34       1      34      35
      35       1      35      36
      36       1      36      37
      37       1      37      38
      38       1      38      39
      39       1      39      40

Angle Coeffs

       1         63      112.4          0          0

Angles

       1       1       1       2       3
       2       1       3       4       5
       3       1       4       3       2
       4       1       5       6       7
       5       1       6       5       4
       6       1       7       8       9
       7       1       8       7       6
       8       1       9      10      11
       9       1      10       9       8
      10       1      11      12      13
      11       1      12      11      10
      12       1      13      14      15
      13       1      14      13      12
      14       1      15      16      17
      15       1      16      15      14
      16       1      17      18      19
      17       1      18      17      16
      18       1      19      20      21
      19       1      20      19      18
      20       1      21      22      23
      21       1      22      21      20
      22       1      23      24      25
      23       1      24      23      22
      24       1      25      26      27
      25       1      26      25      24
      26       1      27      28      29
      27       1      28      27      26
      28       1      29      30      31
      29       1      30      29      28
      30       1      31      32      33
      31       1      32      31      30
      32       1      33      34      35
      33       1      34      33      32
      34       1      35      36      37
      35       1      36      35      34
      36       1      37      38      39
      37       1      38      37      36
      38       1      40      39      38

Dihedral Coeffs

       1      2.346          1          0          0
       2      1.568          2          0          0
       3      2.535          3          0          0
       4      0.784          4          0          0
       5     0.4704          5          0          0

Dihedrals

       1       1       1       2       3       4
       2       2       1       2       3       4
       3       3       1       2       3       4
       4       4       1       2       3       4
       5       5       1       2       3       4
       6       1       2       3       4       5
       7       2       2       3       4       5
       8       3       2       3       4       5
       9       4       2       3       4       5
      10       5       2       3       4       5
      11       1       3       4       5       6
      12       2       3       4       5       6
      13       3       3       4       5       6
      14       4       3       4       5       6
      15       5       3       4       5       6
      16       1       4       5       6       7
      17       2       4       5       6       7
      18       3       4       5       6       7
      19       4       4       5       6       7
      20       5       4       5       6       7
      21       1       5       6       7       8
      22       2       5       6       7       8
      23       3       5       6       7       8
      24       4       5       6       7       8
      25       5       5       6       7       8
      26       1       6       7       8       9
      27       2       6       7       8       9
      28       3       6       7       8       9
      29       4       6       7       8       9
      30       5       6       7       8       9
      31       1       7       8       9      10
      32       2       7       8       9      10
      33       3       7       8       9      10
      34       4       7       8       9      10
      35       5       7       8       9      10
      36       1       8       9      10      11
      37       2       8       9      10      11
      38       3       8       9      10      11
      39       4       8       9      10      11
      40       5       8       9      10      11
      41       1       9      10      11      12
      42       2       9      10      11      12
      43       3       9      10      11      12
      44       4       9      10      11      12
      45       5       9      10      11      12
      46       1      10      11      12      13
      47       2      10      11      12      13
      48       3      10      11      12      13
      49       4      10      11      12      13
      50       5      10      11      12      13
      51       1      11      12      13      14
      52       2      11      12      13      14
      53       3      11      12      13      14
      54       4      11      12      13      14
      55       5      11      12      13      14
      56       1      12      13      14      15
      57       2      12      13      14      15
      58       3      12      13      14      15
      59       4      12      13      14      15
      60       5      12      13      14      15
      61       1      13      14      15      16
      62       2      13      14      15      16
      63       3      13      14      15      16
      64       4      13      14      15      16
      65       5      13      14      15      16
      66       1      14      15      16      17
      67       2      14      15      16      17
      68       3      14      15      16      17
      69       4      14      15      16      17
      70       5      14      15      16      17
      71       1      15      16      17      18
      72       2      15      16      17      18
      73       3      15      16      17      18
      74       4      15      16      17      18
      75       5      15      16      17      18
      76       1      16      17      18      19
      77       2      16      17      18      19
      78       3      16      17      18      19
      79       4      16      17      18      19
      80       5      16      17      18      19
      81       1      17      18      19      20
      82       2      17      18      19      20
      83       3      17      18      19      20
      84       4      17      18      19      20
      85       5      17      18      19      20
      86       1      18      19      20      21
      87       2      18      19      20      21
      88       3      18      19      20      21
      89       4      18      19      20      21
      90       5      18      19      20      21
      91       1      19      20      21      22
      92       2      19      20      21      22
      93       3      19      20      21      22
      94       4      19      20      21      22
      95       5      19      20      21      22
      96       1      20      21      22      23
      97       2      20      21      22      23
      98       3      20      21      22      23
      99       4      20      21      22      23
     100       5      20      21      22      23
     101       1      21      22      23      24
     102       2      21      22      23      24
     103       3      21      22      23      24
     104       4      21      22      23      24
     105       5      21      22      23      24
     106       1      22      23      24      25
     107       2      22      23      24      25
     108       3      22      23      24      25
     109       4      22      23      24      25
     110       5      22      23      24      25
     111       1      23      24      25      26
     112       2      23      24      25      26
     113       3      23      24      25      26
     114       4      23      24      25      26
     115       5      23      24      25      26
     116       1      24      25      26      27
     117       2      24      25      26      27
     118       3      24      25      26      27
     119       4      24      25      26      27
     120       5      24      25      26      27
     121       1      25      26      27      28
     122       2      25      26      27      28
     123       3      25      26      27      28
     124       4      25      26      27      28
     125       5      25      26      27      28
     126       1      26      27      28      29
     127       2      26      27      28      29
     128       3      26      27      28      29
     129       4      26      27      28      29
     130       5      26      27      28      29
     131       1      27      28      29      30
     132       2      27      28      29      30
     133       3      27      28      29      30
     134       4      27      28      29      30
     135       5      27      28      29      30
     136       1      28      29      30      31
     137       2      28      29      30      31
     138       3      28      29      30      31
     139       4      28      29      30      31
     140       5      28      29      30      31
     141       1      29      30      31      32
     142       2      29      30      31      32
     143       3      29      30      31      32
     144       4      29      30      31      32
     145       5      29      30      31      32
     146       1      30      31      32      33
     147       2      30      31      32      33
     148       3      30      31      32      33
     149       4      30      31      32      33
     150       5      30      31      32      33
     151       1      31      32      33      34
     152       2      31      32      33      34
     153       3      31      32      33      34
     154       4      31      32      33      34
     155       5      31      32      33      34
     156       1      32      33      34      35
     157       2      32      33      34      35
     158       3      32      33      34      35
     159       4      32      33      34      35
     160       5      32      33      34      35
     161       1      33      34      35      36
     162       2      33      34      35      36
     163       3      33      34      35      36
     164       4      33      34      35      36
     165       5      33      34      35      36
     166       1      34      35      36      37
     167       2      34      35      36      37
     168       3      34      35      36      37
     169       4      34      35      36      37
     170       5      34      35      36      37
     171       1      35      36      37      38
     172       2      35      36      37      38
     173       3      35      36      37      38
     174       4      35      36      37      38
     175       5      35      36      37      38
     176       1      36      37      38      39
     177       2      36      37      38      39
     178       3      36      37      38      39
     179       4      36      37      38      39
     180       5      36      37      38      39
     181       1      37      38      39      40
     182       2      37      38      39      40
     183       3      37      38      39      40
     184       4      37      38      39      40
     185       5      37      38      39      40

