LAMMPS data file. CGCMM Style. atom_style full. Created by charmm2lammps v1.9.1 on mar 12 nov 2019, 14:14:40, CET

        1501  atoms
        1500  bonds
         529  angles
          58  dihedrals
           4  impropers

          10  atom types
          13  bond types
          22  angle types
          43  dihedral types
           4  improper types

0. 24.85786005 xlo xhi
0. 24.85786005 ylo yhi
0. 24.85786005 zlo zhi

Masses

       1      12.01  # C
       2      12.01  # CT
       3      12.01  # CX
       4      1.008  # H
       5      1.008  # HC
       6      1.008  # H1
       7      1.008  # HW
       8      14.01  # N
       9         16  # O
      10         16  # OW

Pair Coeffs # lj/charmm/coul/long

       1            0.086    3.39966950842  
       2           0.1094    3.39966950842  
       3           0.1094    3.39966950842  
       4           0.0157    1.06907846177  
       5           0.0157    2.64953278775  
       6           0.0157    2.47135304412  
       7                0                0  
       8             0.17    3.24999852378  
       9             0.21    2.95992190115  
      10            0.152    3.15075240658  

Atoms # full

       1       1     5    0.1123            7.883           12.518           12.648  # HC
       2       1     2   -0.3662            8.798            13.11           12.648  # CT
       3       1     5    0.1123            8.824            13.74           11.759  # HC
       4       1     5    0.1123            8.824            13.74           13.537  # HC
       5       1     1    0.5972           10.004           12.181           12.648  # C
       6       1     9   -0.5679            9.852           10.961           12.648  # O
       7       2     8   -0.4157           11.206           12.762           12.648  # N
       8       2     4    0.2719            11.28           13.769           12.648  # H
       9       2     3    0.0337           12.431           11.988           12.648  # CX
      10       2     6    0.0823            12.46           11.353           13.534  # H1
      11       2     2   -0.1825           12.452           11.059           11.437  # CT
      12       2     5    0.0603           13.375           10.479            11.44  # HC
      13       2     5    0.0603           12.398           11.651           10.524  # HC
      14       2     5    0.0603           11.597           10.385           11.481  # HC
      15       2     1    0.5973           13.637           12.916           12.648  # C
      16       2     9   -0.5679           13.483           14.136           12.648  # O
      17       3     8   -0.4157           14.839           12.335           12.648  # N
      18       3     4    0.2719           14.912           11.328           12.648  # H
      19       3     2    -0.149           16.063            13.11           12.648  # CT
      20       3     6    0.0976            16.92           12.436           12.648  # H1
      21       3     6    0.0976           16.096           13.739           13.537  # H1
      22       3     6    0.0976           16.096           13.739           11.759  # H1
      23       4    10    -0.834            1.174            2.302            1.564  # OW
      24       4     7     0.417            1.196            3.095              2.1  # HW
      25       4     7     0.417            1.656            2.536            0.771  # HW
      26       5    10    -0.834            1.761            0.571             3.48  # OW
      27       5     7     0.417            2.372            1.161            3.922  # HW
      28       5     7     0.417            1.418            1.086             2.75  # HW
      29       6    10    -0.834            2.107            1.444            8.223  # OW
      30       6     7     0.417            1.976            1.594            9.159  # HW
      31       6     7     0.417            3.058            1.438            8.112  # HW
      32       7    10    -0.834            1.762            1.534           10.852  # OW
      33       7     7     0.417            0.821            1.511           11.026  # HW
      34       7     7     0.417            2.084            0.689           11.166  # HW
      35       8    10    -0.834            2.648            1.477            14.51  # OW
      36       8     7     0.417            3.418            0.937           14.333  # HW
      37       8     7     0.417            1.912            0.964           14.177  # HW
      38       9    10    -0.834            1.892            1.901           17.145  # OW
      39       9     7     0.417            2.302            2.653           17.571  # HW
      40       9     7     0.417              2.4            1.773           16.344  # HW
      41      10    10    -0.834            2.591            1.357           20.235  # OW
      42      10     7     0.417            3.189            1.936           19.762  # HW
      43      10     7     0.417            3.162            0.723           20.668  # HW
      44      11    10    -0.834            0.565            1.966           23.276  # OW
      45      11     7     0.417            0.849             2.88           23.254  # HW
      46      11     7     0.417            1.301            1.476            22.91  # HW
      47      12    10    -0.834            2.192             4.91             2.24  # OW
      48      12     7     0.417            2.904            4.824            1.606  # HW
      49      12     7     0.417            2.416            5.689            2.748  # HW
      50      13    10    -0.834            3.001            4.153            4.667  # OW
      51      13     7     0.417            3.047             3.25            4.981  # HW
      52      13     7     0.417            2.812            4.073            3.732  # HW
      53      14    10    -0.834            1.581            4.055            7.641  # OW
      54      14     7     0.417            2.478            4.388              7.6  # HW
      55      14     7     0.417            1.673            3.107            7.552  # HW
      56      15    10    -0.834            1.376            4.486           12.109  # OW
      57      15     7     0.417             1.43            4.089           12.979  # HW
      58      15     7     0.417            1.835            3.871           11.537  # HW
      59      16    10    -0.834            1.827             4.37           15.034  # OW
      60      16     7     0.417             2.43            4.716           15.692  # HW
      61      16     7     0.417            2.088            3.455           14.928  # HW
      62      17    10    -0.834             1.32            4.716           18.028  # OW
      63      17     7     0.417             1.52            5.552           17.606  # HW
      64      17     7     0.417            0.435            4.504           17.732  # HW
      65      18    10    -0.834            1.957            5.323           20.781  # OW
      66      18     7     0.417            2.741            5.738           20.422  # HW
      67      18     7     0.417            1.552            4.886           20.032  # HW
      68      19    10    -0.834            1.377            4.683           23.339  # OW
      69      19     7     0.417            2.067            5.137           23.822  # HW
      70      19     7     0.417             1.53            4.919           22.424  # HW
      71      20    10    -0.834            1.328            7.546            1.263  # OW
      72      20     7     0.417              2.2            7.221            1.489  # HW
      73      20     7     0.417            1.414            7.858            0.362  # HW
      74      21    10    -0.834            1.818            6.508            5.494  # OW
      75      21     7     0.417            2.339            5.706            5.472  # HW
      76      21     7     0.417            2.459            7.213            5.403  # HW
      77      22    10    -0.834            1.637             7.91            8.805  # OW
      78      22     7     0.417            2.558            7.798             8.57  # HW
      79      22     7     0.417            1.494            7.288            9.519  # HW
      80      23    10    -0.834            1.363            7.171           11.453  # OW
      81      23     7     0.417            2.206            7.583            11.26  # HW
      82      23     7     0.417            1.555            6.234           11.482  # HW
      83      24    10    -0.834            0.954            7.202           14.047  # OW
      84      24     7     0.417             1.51            6.445           14.232  # HW
      85      24     7     0.417            1.113            7.397           13.124  # HW
      86      25    10    -0.834            2.001            7.481           17.725  # OW
      87      25     7     0.417            2.499            7.175           18.482  # HW
      88      25     7     0.417            2.557            8.151           17.326  # HW
      89      26    10    -0.834           -0.007            7.462            20.65  # OW
      90      26     7     0.417             0.61            8.185           20.762  # HW
      91      26     7     0.417            0.348            6.758           21.192  # HW
      92      27    10    -0.834            2.453            7.655           23.442  # OW
      93      27     7     0.417            2.117            7.986           22.609  # HW
      94      27     7     0.417            3.401            7.608           23.317  # HW
      95      28    10    -0.834            1.507           10.349            1.618  # OW
      96      28     7     0.417            1.973           10.646            2.399  # HW
      97      28     7     0.417            1.454            9.398            1.717  # HW
      98      29    10    -0.834            2.031           10.744            4.631  # OW
      99      29     7     0.417            1.914            11.64            4.947  # HW
     100      29     7     0.417            2.968           10.675            4.445  # HW
     101      30    10    -0.834            0.262            9.831            7.572  # OW
     102      30     7     0.417            0.978           10.462            7.491  # HW
     103      30     7     0.417            0.601            9.158            8.162  # HW
     104      31    10    -0.834            1.476           11.179           10.221  # OW
     105      31     7     0.417            1.253           12.001            9.784  # HW
     106      31     7     0.417            2.429           11.123           10.153  # HW
     107      32    10    -0.834            1.684           10.107           14.467  # OW
     108      32     7     0.417            2.567           10.104           14.098  # HW
     109      32     7     0.417            1.317            9.259            14.22  # HW
     110      33    10    -0.834             1.05           11.005           17.295  # OW
     111      33     7     0.417            1.676           10.738           16.623  # HW
     112      33     7     0.417             1.53           11.632           17.836  # HW
     113      34    10    -0.834             1.96            9.491           21.506  # OW
     114      34     7     0.417            2.284           10.187           22.078  # HW
     115      34     7     0.417            2.737            9.186           21.035  # HW
     116      35    10    -0.834            2.166           11.873           23.443  # OW
     117      35     7     0.417            1.298           12.248             23.3  # HW
     118      35     7     0.417            2.024           11.179           24.087  # HW
     119      36    10    -0.834            0.589           15.294            3.202  # OW
     120      36     7     0.417            0.239           16.019            3.721  # HW
     121      36     7     0.417            1.366           15.008            3.683  # HW
     122      37    10    -0.834            2.182           13.511            5.581  # OW
     123      37     7     0.417            2.325           14.134            6.293  # HW
     124      37     7     0.417            2.621           13.903            4.826  # HW
     125      38    10    -0.834            2.476           15.274            7.687  # OW
     126      38     7     0.417            2.262           15.868            8.406  # HW
     127      38     7     0.417            3.427           15.177             7.73  # HW
     128      39    10    -0.834            1.346           14.075            9.948  # OW
     129      39     7     0.417            2.186           14.337           10.324  # HW
     130      39     7     0.417             1.33           14.489            9.085  # HW
     131      40    10    -0.834            1.484           13.128           15.157  # OW
     132      40     7     0.417            2.248           12.719           14.753  # HW
     133      40     7     0.417            0.792            12.47           15.084  # HW
     134      41    10    -0.834            2.651           13.091           17.584  # OW
     135      41     7     0.417            3.307           13.761           17.774  # HW
     136      41     7     0.417            2.423           13.231           16.665  # HW
     137      42    10    -0.834            2.611           14.468           20.197  # OW
     138      42     7     0.417            3.286           13.926           20.606  # HW
     139      42     7     0.417             2.25           13.918           19.502  # HW
     140      43    10    -0.834            0.253           14.381           22.259  # OW
     141      43     7     0.417            0.601           15.103           22.782  # HW
     142      43     7     0.417            0.488           14.602           21.358  # HW
     143      44    10    -0.834            2.156           16.164            0.895  # OW
     144      44     7     0.417            3.111           16.104            0.889  # HW
     145      44     7     0.417            1.883           15.569            1.594  # HW
     146      45    10    -0.834            2.318           17.678            4.379  # OW
     147      45     7     0.417            2.861           16.935            4.116  # HW
     148      45     7     0.417            2.829           18.448             4.13  # HW
     149      46    10    -0.834            0.388           17.969            6.933  # OW
     150      46     7     0.417            1.142           17.942            6.343  # HW
     151      46     7     0.417            0.312           18.889            7.183  # HW
     152      47    10    -0.834             2.84           17.136            9.583  # OW
     153      47     7     0.417            2.271           17.739           10.061  # HW
     154      47     7     0.417            3.659           17.135           10.079  # HW
     155      48    10    -0.834            2.233            15.75           14.698  # OW
     156      48     7     0.417             3.15           15.591           14.476  # HW
     157      48     7     0.417            1.871           14.879           14.865  # HW
     158      49    10    -0.834            0.839           17.084           16.554  # OW
     159      49     7     0.417            1.377           16.737           17.266  # HW
     160      49     7     0.417            1.236           16.729           15.759  # HW
     161      50    10    -0.834            2.916           17.011           20.729  # OW
     162      50     7     0.417            3.844           16.841           20.893  # HW
     163      50     7     0.417            2.543           16.149           20.545  # HW
     164      51    10    -0.834            1.023             17.2           23.275  # OW
     165      51     7     0.417            1.457           17.002           24.105  # HW
     166      51     7     0.417            1.509           17.945           22.921  # HW
     167      52    10    -0.834            1.692           18.852            1.249  # OW
     168      52     7     0.417            2.491           19.284             1.55  # HW
     169      52     7     0.417            1.829           17.926            1.452  # HW
     170      53    10    -0.834            0.391           20.917            3.985  # OW
     171      53     7     0.417            0.951            21.51            4.486  # HW
     172      53     7     0.417            0.891           20.102            3.932  # HW
     173      54    10    -0.834            1.686           21.027            9.195  # OW
     174      54     7     0.417            1.766           21.842              8.7  # HW
     175      54     7     0.417            1.956           20.345             8.58  # HW
     176      55    10    -0.834            2.045           19.095           11.133  # OW
     177      55     7     0.417            2.997            19.15           11.224  # HW
     178      55     7     0.417              1.8           19.903           10.684  # HW
     179      56    10    -0.834            0.185           20.699           14.392  # OW
     180      56     7     0.417            0.392           20.641           15.324  # HW
     181      56     7     0.417            1.001           20.467           13.949  # HW
     182      57    10    -0.834            1.316           19.653           16.541  # OW
     183      57     7     0.417            2.253            19.46            16.52  # HW
     184      57     7     0.417            0.898             18.8            16.66  # HW
     185      58    10    -0.834            2.673           20.328           20.506  # OW
     186      58     7     0.417            2.689           19.913           21.368  # HW
     187      58     7     0.417            3.565           20.227           20.174  # HW
     188      59    10    -0.834            2.635           19.709            23.61  # OW
     189      59     7     0.417            2.241           19.662           24.481  # HW
     190      59     7     0.417            3.578           19.689           23.771  # HW
     191      60    10    -0.834            2.379           22.333            1.806  # OW
     192      60     7     0.417            2.399           23.077            2.408  # HW
     193      60     7     0.417             2.83           21.632            2.277  # HW
     194      61    10    -0.834            2.071           23.007            4.932  # OW
     195      61     7     0.417             1.87           23.719            4.324  # HW
     196      61     7     0.417            2.982           22.782            4.744  # HW
     197      62    10    -0.834            1.712           23.458            7.929  # OW
     198      62     7     0.417             1.51           24.364            7.694  # HW
     199      62     7     0.417            2.427           23.212            7.343  # HW
     200      63    10    -0.834             2.51           23.608           10.741  # OW
     201      63     7     0.417            3.289           23.054            10.77  # HW
     202      63     7     0.417             2.15           23.471            9.864  # HW
     203      64    10    -0.834            0.992           23.986             14.3  # OW
     204      64     7     0.417            1.138           23.876            15.24  # HW
     205      64     7     0.417            1.485           23.273           13.895  # HW
     206      65    10    -0.834            1.324           24.064           17.321  # OW
     207      65     7     0.417            1.448           25.012            17.28  # HW
     208      65     7     0.417            1.497           23.839           18.235  # HW
     209      66    10    -0.834            1.862           22.922           19.734  # OW
     210      66     7     0.417            2.712           23.348            19.85  # HW
     211      66     7     0.417            2.036           21.994           19.889  # HW
     212      67    10    -0.834            1.573           22.851           24.044  # OW
     213      67     7     0.417            2.227           22.718            24.73  # HW
     214      67     7     0.417             1.88           22.314           23.313  # HW
     215      68    10    -0.834            5.587            1.793            0.833  # OW
     216      68     7     0.417            6.406            1.968            1.295  # HW
     217      68     7     0.417            5.382            0.882            1.045  # HW
     218      69    10    -0.834            3.769            1.328            5.107  # OW
     219      69     7     0.417            4.071            1.324            6.015  # HW
     220      69     7     0.417             4.18            0.558            4.714  # HW
     221      70    10    -0.834            4.852            1.017            7.729  # OW
     222      70     7     0.417            5.786            1.204            7.831  # HW
     223      70     7     0.417            4.767             0.09            7.954  # HW
     224      71    10    -0.834            5.001            0.889           10.955  # OW
     225      71     7     0.417            5.739            0.281           10.903  # HW
     226      71     7     0.417            4.306            0.466            10.45  # HW
     227      72    10    -0.834            4.739            0.082           13.793  # OW
     228      72     7     0.417             5.17            0.373           12.989  # HW
     229      72     7     0.417            5.234            -0.69           14.065  # HW
     230      73    10    -0.834            5.439            1.436           16.608  # OW
     231      73     7     0.417            6.357            1.365            16.87  # HW
     232      73     7     0.417            5.466            1.852           15.747  # HW
     233      74    10    -0.834            4.614            2.849           18.747  # OW
     234      74     7     0.417            5.292             2.44           19.284  # HW
     235      74     7     0.417            4.663             2.39           17.908  # HW
     236      75    10    -0.834            4.397            1.382           23.073  # OW
     237      75     7     0.417            4.814             1.71           23.869  # HW
     238      75     7     0.417            4.385            2.134           22.481  # HW
     239      76    10    -0.834            4.544            4.231            0.799  # OW
     240      76     7     0.417            5.083            4.661            1.464  # HW
     241      76     7     0.417             4.84             3.32            0.803  # HW
     242      77    10    -0.834            5.615            5.562             3.34  # OW
     243      77     7     0.417            6.496            5.388            3.672  # HW
     244      77     7     0.417            5.042            5.026            3.888  # HW
     245      78    10    -0.834            3.979            4.934            8.823  # OW
     246      78     7     0.417            4.302            4.484            9.604  # HW
     247      78     7     0.417            4.224             5.85            8.955  # HW
     248      79    10    -0.834            5.211            3.706           11.094  # OW
     249      79     7     0.417            6.018            4.195           10.933  # HW
     250      79     7     0.417            5.506            2.861           11.432  # HW
     251      80    10    -0.834            5.525            5.781            12.88  # OW
     252      80     7     0.417             6.01             5.19           13.456  # HW
     253      80     7     0.417            5.035              5.2           12.298  # HW
     254      81    10    -0.834            4.547            5.328           16.456  # OW
     255      81     7     0.417            5.409            4.916           16.515  # HW
     256      81     7     0.417             4.51             5.68           15.566  # HW
     257      82    10    -0.834            4.347            5.597           18.985  # OW
     258      82     7     0.417            4.353             4.64           18.971  # HW
     259      82     7     0.417            4.194            5.849           18.074  # HW
     260      83    10    -0.834             5.02             6.08           23.696  # OW
     261      83     7     0.417            4.782            5.479           24.402  # HW
     262      83     7     0.417            5.313            5.511           22.984  # HW
     263      84    10    -0.834            3.965            7.227            2.268  # OW
     264      84     7     0.417            4.301            8.101            2.469  # HW
     265      84     7     0.417            4.648            6.631            2.575  # HW
     266      85    10    -0.834            4.157            8.107            5.114  # OW
     267      85     7     0.417            4.256            9.024             4.86  # HW
     268      85     7     0.417            4.824            7.644            4.607  # HW
     269      86    10    -0.834            4.412            7.904            7.809  # OW
     270      86     7     0.417            5.368            7.877            7.777  # HW
     271      86     7     0.417            4.145            8.017            6.896  # HW
     272      87    10    -0.834            4.128            7.745           10.611  # OW
     273      87     7     0.417            4.087            7.989            9.687  # HW
     274      87     7     0.417             5.04            7.894            10.86  # HW
     275      88    10    -0.834            4.056            7.822           14.409  # OW
     276      88     7     0.417            4.445            8.562           13.944  # HW
     277      88     7     0.417            4.023             7.12           13.759  # HW
     278      89    10    -0.834            4.687            8.395           17.065  # OW
     279      89     7     0.417            5.504            7.941           17.272  # HW
     280      89     7     0.417            4.576            8.271           16.123  # HW
     281      90    10    -0.834            3.866            7.839           20.206  # OW
     282      90     7     0.417            4.196             8.56            19.67  # HW
     283      90     7     0.417             4.35            7.071             19.9  # HW
     284      91    10    -0.834            5.268            8.521            22.57  # OW
     285      91     7     0.417            5.398            7.716           23.071  # HW
     286      91     7     0.417            5.702            8.356           21.733  # HW
     287      92    10    -0.834             4.63           12.632            2.315  # OW
     288      92     7     0.417            5.285           12.911            1.676  # HW
     289      92     7     0.417            4.578           11.683            2.207  # HW
     290      93    10    -0.834            4.745           10.885            4.881  # OW
     291      93     7     0.417            5.559           10.525            5.234  # HW
     292      93     7     0.417            4.961           11.789            4.654  # HW
     293      94    10    -0.834            6.392           12.653            6.591  # OW
     294      94     7     0.417            5.668           12.397            7.162  # HW
     295      94     7     0.417            6.697           11.831            6.206  # HW
     296      95    10    -0.834            4.108           11.144           10.101  # OW
     297      95     7     0.417            4.181           12.071           10.328  # HW
     298      95     7     0.417            4.903           10.957            9.601  # HW
     299      96    10    -0.834            4.366           10.192           12.791  # OW
     300      96     7     0.417            5.302           10.358           12.899  # HW
     301      96     7     0.417            4.227           10.205           11.844  # HW
     302      97    10    -0.834            5.103           11.232           16.556  # OW
     303      97     7     0.417            6.024           11.402           16.753  # HW
     304      97     7     0.417            4.889            10.45           17.066  # HW
     305      98    10    -0.834            4.778           10.787           19.481  # OW
     306      98     7     0.417             5.58           10.833           20.001  # HW
     307      98     7     0.417            4.958           11.333           18.715  # HW
     308      99    10    -0.834            5.693           11.096           23.491  # OW
     309      99     7     0.417            6.416           10.861           24.072  # HW
     310      99     7     0.417            5.235           10.271           23.331  # HW
     311     100    10    -0.834            5.693           14.864            0.819  # OW
     312     100     7     0.417            5.524           15.496             0.12  # HW
     313     100     7     0.417            6.604           15.019            1.067  # HW
     314     101    10    -0.834             3.83           14.876            3.499  # OW
     315     101     7     0.417            4.645           15.379            3.491  # HW
     316     101     7     0.417            4.059           14.042            3.087  # HW
     317     102    10    -0.834            5.165           14.963            8.053  # OW
     318     102     7     0.417            5.136           15.737             7.49  # HW
     319     102     7     0.417            6.055           14.626            7.951  # HW
     320     103    10    -0.834            4.295             13.9           10.301  # OW